[
  {
    "name": "Gallium Arsenide",
    "formula": "GaAs",
    "synonyms": [
      "Gallium Arsenide",
      "GaAs"
    ],
    "category": "Semiconductor",
    "bandgap": {
      "value": 1.43,
      "units": "eV",
      "type": "Direct"
    },
    "lattice_constant": {
      "value": 5.653,
      "units": "\u00c5"
    },
    "crystal_structure": "Zinc Blende",
    "density": {
      "value": 5.32,
      "units": "g/cm\u00b3"
    },
    "thermal_conductivity": {
      "value": 46,
      "units": "W/mK"
    },
    "thermal_expansion": {
      "value": 5.8,
      "units": "\u00b5m/m\u00b7K"
    },
    "mobility": {
      "electrons": 8500,
      "holes": 400,
      "units": "cm\u00b2/V\u00b7s"
    },
    "refractive_index": {
      "value": 3.3,
      "units": ""
    },
    "dielectric_constant": 13.1,
    "work_function": {
      "value": 4.07,
      "units": "eV"
    },
    "notes": "Used in high-speed optoelectronic devices.",
    "tags": [
      "III-V",
      "Direct bandgap",
      "Infrared emitter"
    ],
    "references": [
      {
        "label": "Wikipedia",
        "url": "https://en.wikipedia.org/wiki/Gallium_arsenide"
      }
    ],
    "image": "images/gaas.png"
  },
  {
    "name": "Silicon",
    "formula": "Si",
    "synonyms": [
      "Silicon",
      "Si"
    ],
    "category": "Semiconductor",
    "bandgap": {
      "value": 1.12,
      "units": "eV",
      "type": "Indirect"
    },
    "lattice_constant": {
      "value": 5.431,
      "units": "\u00c5"
    },
    "crystal_structure": "Diamond Cubic",
    "density": {
      "value": 2.33,
      "units": "g/cm\u00b3"
    },
    "thermal_conductivity": {
      "value": 149,
      "units": "W/mK"
    },
    "thermal_expansion": {
      "value": 2.6,
      "units": "\u00b5m/m\u00b7K"
    },
    "mobility": {
      "electrons": 1400,
      "holes": 450,
      "units": "cm\u00b2/V\u00b7s"
    },
    "refractive_index": {
      "value": 3.5,
      "units": ""
    },
    "dielectric_constant": 11.7,
    "work_function": {
      "value": 4.85,
      "units": "eV"
    },
    "notes": "Most widely used semiconductor in electronics.",
    "tags": [
      "Group IV",
      "CMOS-compatible"
    ],
    "references": [
      {
        "label": "Wikipedia",
        "url": "https://en.wikipedia.org/wiki/Silicon"
      }
    ],
    "image": "images/si.png"
  }
]