[
  {
    "name": "Gallium Arsenide",
    "formula": "GaAs",
    "synonyms": [
      "Gallium Arsenide",
      "GaAs"
    ],
    "category": "Semiconductor",
    "bandgap": {
      "value": 1.43,
      "units": "eV",
      "type": "Direct"
    },
    "lattice_constant": {
      "value": 5.653,
      "units": "\u00c5"
    },
    "thermal_conductivity": {
      "value": 46,
      "units": "W/mK"
    },
    "mobility": {
      "electrons": 8500,
      "holes": 400,
      "units": "cm\u00b2/V\u00b7s"
    },
    "notes": "Used in high-speed optoelectronic devices.",
    "tags": [
      "III-V",
      "Direct bandgap",
      "Infrared emitter"
    ],
    "references": [
      {
        "label": "Wikipedia",
        "url": "https://en.wikipedia.org/wiki/Gallium_arsenide"
      }
    ]
  },
  {
    "name": "Silicon",
    "formula": "Si",
    "synonyms": [
      "Silicon",
      "Si"
    ],
    "category": "Semiconductor",
    "bandgap": {
      "value": 1.12,
      "units": "eV",
      "type": "Indirect"
    },
    "lattice_constant": {
      "value": 5.431,
      "units": "\u00c5"
    },
    "thermal_conductivity": {
      "value": 149,
      "units": "W/mK"
    },
    "mobility": {
      "electrons": 1400,
      "holes": 450,
      "units": "cm\u00b2/V\u00b7s"
    },
    "notes": "Most commonly used semiconductor material in electronics.",
    "tags": [
      "Group IV",
      "CMOS-compatible"
    ],
    "references": [
      {
        "label": "Wikipedia",
        "url": "https://en.wikipedia.org/wiki/Silicon"
      }
    ]
  }
]